# vtk DataFile Version 3.0
vtk output
ASCII
DATASET UNSTRUCTURED_GRID
POINTS 1331 float
0 0 0 0 0 1e-06 0 0 2e-06 
0 0 3e-06 0 0 4e-06 0 0 5e-06 
0 0 6e-06 0 0 7e-06 0 0 8e-06 
0 0 9e-06 0 0 1e-05 0 1e-06 0 
0 1e-06 1e-06 0 1e-06 2e-06 0 1e-06 3e-06 
0 1e-06 4e-06 0 1e-06 5e-06 0 1e-06 6e-06 
0 1e-06 7e-06 0 1e-06 8e-06 0 1e-06 9e-06 
0 1e-06 1e-05 0 2e-06 0 0 2e-06 1e-06 
0 2e-06 2e-06 0 2e-06 3e-06 0 2e-06 4e-06 
0 2e-06 5e-06 0 2e-06 6e-06 0 2e-06 7e-06 
0 2e-06 8e-06 0 2e-06 9e-06 0 2e-06 1e-05 
0 3e-06 0 0 3e-06 1e-06 0 3e-06 2e-06 
0 3e-06 3e-06 0 3e-06 4e-06 0 3e-06 5e-06 
0 3e-06 6e-06 0 3e-06 7e-06 0 3e-06 8e-06 
0 3e-06 9e-06 0 3e-06 1e-05 0 4e-06 0 
0 4e-06 1e-06 0 4e-06 2e-06 0 4e-06 3e-06 
0 4e-06 4e-06 0 4e-06 5e-06 0 4e-06 6e-06 
0 4e-06 7e-06 0 4e-06 8e-06 0 4e-06 9e-06 
0 4e-06 1e-05 0 5e-06 0 0 5e-06 1e-06 
0 5e-06 2e-06 0 5e-06 3e-06 0 5e-06 4e-06 
0 5e-06 5e-06 0 5e-06 6e-06 0 5e-06 7e-06 
0 5e-06 8e-06 0 5e-06 9e-06 0 5e-06 1e-05 
0 6e-06 0 0 6e-06 1e-06 0 6e-06 2e-06 
0 6e-06 3e-06 0 6e-06 4e-06 0 6e-06 5e-06 
0 6e-06 6e-06 0 6e-06 7e-06 0 6e-06 8e-06 
0 6e-06 9e-06 0 6e-06 1e-05 0 7e-06 0 
0 7e-06 1e-06 0 7e-06 2e-06 0 7e-06 3e-06 
0 7e-06 4e-06 0 7e-06 5e-06 0 7e-06 6e-06 
0 7e-06 7e-06 0 7e-06 8e-06 0 7e-06 9e-06 
0 7e-06 1e-05 0 8e-06 0 0 8e-06 1e-06 
0 8e-06 2e-06 0 8e-06 3e-06 0 8e-06 4e-06 
0 8e-06 5e-06 0 8e-06 6e-06 0 8e-06 7e-06 
0 8e-06 8e-06 0 8e-06 9e-06 0 8e-06 1e-05 
0 9e-06 0 0 9e-06 1e-06 0 9e-06 2e-06 
0 9e-06 3e-06 0 9e-06 4e-06 0 9e-06 5e-06 
0 9e-06 6e-06 0 9e-06 7e-06 0 9e-06 8e-06 
0 9e-06 9e-06 0 9e-06 1e-05 0 1e-05 0 
0 1e-05 1e-06 0 1e-05 2e-06 0 1e-05 3e-06 
0 1e-05 4e-06 0 1e-05 5e-06 0 1e-05 6e-06 
0 1e-05 7e-06 0 1e-05 8e-06 0 1e-05 9e-06 
0 1e-05 1e-05 1e-06 0 0 1e-06 0 1e-06 
1e-06 0 2e-06 1e-06 0 3e-06 1e-06 0 4e-06 
1e-06 0 5e-06 1e-06 0 6e-06 1e-06 0 7e-06 
1e-06 0 8e-06 1e-06 0 9e-06 1e-06 0 1e-05 
1e-06 1e-06 0 1e-06 1e-06 1e-06 1e-06 1e-06 2e-06 
1e-06 1e-06 3e-06 1e-06 1e-06 4e-06 1e-06 1e-06 5e-06 
1e-06 1e-06 6e-06 1e-06 1e-06 7e-06 1e-06 1e-06 8e-06 
1e-06 1e-06 9e-06 1e-06 1e-06 1e-05 1e-06 2e-06 0 
1e-06 2e-06 1e-06 1e-06 2e-06 2e-06 1e-06 2e-06 3e-06 
1e-06 2e-06 4e-06 1e-06 2e-06 5e-06 1e-06 2e-06 6e-06 
1e-06 2e-06 7e-06 1e-06 2e-06 8e-06 1e-06 2e-06 9e-06 
1e-06 2e-06 1e-05 1e-06 3e-06 0 1e-06 3e-06 1e-06 
1e-06 3e-06 2e-06 1e-06 3e-06 3e-06 1e-06 3e-06 4e-06 
1e-06 3e-06 5e-06 1e-06 3e-06 6e-06 1e-06 3e-06 7e-06 
1e-06 3e-06 8e-06 1e-06 3e-06 9e-06 1e-06 3e-06 1e-05 
1e-06 4e-06 0 1e-06 4e-06 1e-06 1e-06 4e-06 2e-06 
1e-06 4e-06 3e-06 1e-06 4e-06 4e-06 1e-06 4e-06 5e-06 
1e-06 4e-06 6e-06 1e-06 4e-06 7e-06 1e-06 4e-06 8e-06 
1e-06 4e-06 9e-06 1e-06 4e-06 1e-05 1e-06 5e-06 0 
1e-06 5e-06 1e-06 1e-06 5e-06 2e-06 1e-06 5e-06 3e-06 
1e-06 5e-06 4e-06 1e-06 5e-06 5e-06 1e-06 5e-06 6e-06 
1e-06 5e-06 7e-06 1e-06 5e-06 8e-06 1e-06 5e-06 9e-06 
1e-06 5e-06 1e-05 1e-06 6e-06 0 1e-06 6e-06 1e-06 
1e-06 6e-06 2e-06 1e-06 6e-06 3e-06 1e-06 6e-06 4e-06 
1e-06 6e-06 5e-06 1e-06 6e-06 6e-06 1e-06 6e-06 7e-06 
1e-06 6e-06 8e-06 1e-06 6e-06 9e-06 1e-06 6e-06 1e-05 
1e-06 7e-06 0 1e-06 7e-06 1e-06 1e-06 7e-06 2e-06 
1e-06 7e-06 3e-06 1e-06 7e-06 4e-06 1e-06 7e-06 5e-06 
1e-06 7e-06 6e-06 1e-06 7e-06 7e-06 1e-06 7e-06 8e-06 
1e-06 7e-06 9e-06 1e-06 7e-06 1e-05 1e-06 8e-06 0 
1e-06 8e-06 1e-06 1e-06 8e-06 2e-06 1e-06 8e-06 3e-06 
1e-06 8e-06 4e-06 1e-06 8e-06 5e-06 1e-06 8e-06 6e-06 
1e-06 8e-06 7e-06 1e-06 8e-06 8e-06 1e-06 8e-06 9e-06 
1e-06 8e-06 1e-05 1e-06 9e-06 0 1e-06 9e-06 1e-06 
1e-06 9e-06 2e-06 1e-06 9e-06 3e-06 1e-06 9e-06 4e-06 
1e-06 9e-06 5e-06 1e-06 9e-06 6e-06 1e-06 9e-06 7e-06 
1e-06 9e-06 8e-06 1e-06 9e-06 9e-06 1e-06 9e-06 1e-05 
1e-06 1e-05 0 1e-06 1e-05 1e-06 1e-06 1e-05 2e-06 
1e-06 1e-05 3e-06 1e-06 1e-05 4e-06 1e-06 1e-05 5e-06 
1e-06 1e-05 6e-06 1e-06 1e-05 7e-06 1e-06 1e-05 8e-06 
1e-06 1e-05 9e-06 1e-06 1e-05 1e-05 2e-06 0 0 
2e-06 0 1e-06 2e-06 0 2e-06 2e-06 0 3e-06 
2e-06 0 4e-06 2e-06 0 5e-06 2e-06 0 6e-06 
2e-06 0 7e-06 2e-06 0 8e-06 2e-06 0 9e-06 
2e-06 0 1e-05 2e-06 1e-06 0 2e-06 1e-06 1e-06 
2e-06 1e-06 2e-06 2e-06 1e-06 3e-06 2e-06 1e-06 4e-06 
2e-06 1e-06 5e-06 2e-06 1e-06 6e-06 2e-06 1e-06 7e-06 
2e-06 1e-06 8e-06 2e-06 1e-06 9e-06 2e-06 1e-06 1e-05 
2e-06 2e-06 0 2e-06 2e-06 1e-06 2e-06 2e-06 2e-06 
2e-06 2e-06 3e-06 2e-06 2e-06 4e-06 2e-06 2e-06 5e-06 
2e-06 2e-06 6e-06 2e-06 2e-06 7e-06 2e-06 2e-06 8e-06 
2e-06 2e-06 9e-06 2e-06 2e-06 1e-05 2e-06 3e-06 0 
2e-06 3e-06 1e-06 2e-06 3e-06 2e-06 2e-06 3e-06 3e-06 
2e-06 3e-06 4e-06 2e-06 3e-06 5e-06 2e-06 3e-06 6e-06 
2e-06 3e-06 7e-06 2e-06 3e-06 8e-06 2e-06 3e-06 9e-06 
2e-06 3e-06 1e-05 2e-06 4e-06 0 2e-06 4e-06 1e-06 
2e-06 4e-06 2e-06 2e-06 4e-06 3e-06 2e-06 4e-06 4e-06 
2e-06 4e-06 5e-06 2e-06 4e-06 6e-06 2e-06 4e-06 7e-06 
2e-06 4e-06 8e-06 2e-06 4e-06 9e-06 2e-06 4e-06 1e-05 
2e-06 5e-06 0 2e-06 5e-06 1e-06 2e-06 5e-06 2e-06 
2e-06 5e-06 3e-06 2e-06 5e-06 4e-06 2e-06 5e-06 5e-06 
2e-06 5e-06 6e-06 2e-06 5e-06 7e-06 2e-06 5e-06 8e-06 
2e-06 5e-06 9e-06 2e-06 5e-06 1e-05 2e-06 6e-06 0 
2e-06 6e-06 1e-06 2e-06 6e-06 2e-06 2e-06 6e-06 3e-06 
2e-06 6e-06 4e-06 2e-06 6e-06 5e-06 2e-06 6e-06 6e-06 
2e-06 6e-06 7e-06 2e-06 6e-06 8e-06 2e-06 6e-06 9e-06 
2e-06 6e-06 1e-05 2e-06 7e-06 0 2e-06 7e-06 1e-06 
2e-06 7e-06 2e-06 2e-06 7e-06 3e-06 2e-06 7e-06 4e-06 
2e-06 7e-06 5e-06 2e-06 7e-06 6e-06 2e-06 7e-06 7e-06 
2e-06 7e-06 8e-06 2e-06 7e-06 9e-06 2e-06 7e-06 1e-05 
2e-06 8e-06 0 2e-06 8e-06 1e-06 2e-06 8e-06 2e-06 
2e-06 8e-06 3e-06 2e-06 8e-06 4e-06 2e-06 8e-06 5e-06 
2e-06 8e-06 6e-06 2e-06 8e-06 7e-06 2e-06 8e-06 8e-06 
2e-06 8e-06 9e-06 2e-06 8e-06 1e-05 2e-06 9e-06 0 
2e-06 9e-06 1e-06 2e-06 9e-06 2e-06 2e-06 9e-06 3e-06 
2e-06 9e-06 4e-06 2e-06 9e-06 5e-06 2e-06 9e-06 6e-06 
2e-06 9e-06 7e-06 2e-06 9e-06 8e-06 2e-06 9e-06 9e-06 
2e-06 9e-06 1e-05 2e-06 1e-05 0 2e-06 1e-05 1e-06 
2e-06 1e-05 2e-06 2e-06 1e-05 3e-06 2e-06 1e-05 4e-06 
2e-06 1e-05 5e-06 2e-06 1e-05 6e-06 2e-06 1e-05 7e-06 
2e-06 1e-05 8e-06 2e-06 1e-05 9e-06 2e-06 1e-05 1e-05 
3e-06 0 0 3e-06 0 1e-06 3e-06 0 2e-06 
3e-06 0 3e-06 3e-06 0 4e-06 3e-06 0 5e-06 
3e-06 0 6e-06 3e-06 0 7e-06 3e-06 0 8e-06 
3e-06 0 9e-06 3e-06 0 1e-05 3e-06 1e-06 0 
3e-06 1e-06 1e-06 3e-06 1e-06 2e-06 3e-06 1e-06 3e-06 
3e-06 1e-06 4e-06 3e-06 1e-06 5e-06 3e-06 1e-06 6e-06 
3e-06 1e-06 7e-06 3e-06 1e-06 8e-06 3e-06 1e-06 9e-06 
3e-06 1e-06 1e-05 3e-06 2e-06 0 3e-06 2e-06 1e-06 
3e-06 2e-06 2e-06 3e-06 2e-06 3e-06 3e-06 2e-06 4e-06 
3e-06 2e-06 5e-06 3e-06 2e-06 6e-06 3e-06 2e-06 7e-06 
3e-06 2e-06 8e-06 3e-06 2e-06 9e-06 3e-06 2e-06 1e-05 
3e-06 3e-06 0 3e-06 3e-06 1e-06 3e-06 3e-06 2e-06 
3e-06 3e-06 3e-06 3e-06 3e-06 4e-06 3e-06 3e-06 5e-06 
3e-06 3e-06 6e-06 3e-06 3e-06 7e-06 3e-06 3e-06 8e-06 
3e-06 3e-06 9e-06 3e-06 3e-06 1e-05 3e-06 4e-06 0 
3e-06 4e-06 1e-06 3e-06 4e-06 2e-06 3e-06 4e-06 3e-06 
3e-06 4e-06 4e-06 3e-06 4e-06 5e-06 3e-06 4e-06 6e-06 
3e-06 4e-06 7e-06 3e-06 4e-06 8e-06 3e-06 4e-06 9e-06 
3e-06 4e-06 1e-05 3e-06 5e-06 0 3e-06 5e-06 1e-06 
3e-06 5e-06 2e-06 3e-06 5e-06 3e-06 3e-06 5e-06 4e-06 
3e-06 5e-06 5e-06 3e-06 5e-06 6e-06 3e-06 5e-06 7e-06 
3e-06 5e-06 8e-06 3e-06 5e-06 9e-06 3e-06 5e-06 1e-05 
3e-06 6e-06 0 3e-06 6e-06 1e-06 3e-06 6e-06 2e-06 
3e-06 6e-06 3e-06 3e-06 6e-06 4e-06 3e-06 6e-06 5e-06 
3e-06 6e-06 6e-06 3e-06 6e-06 7e-06 3e-06 6e-06 8e-06 
3e-06 6e-06 9e-06 3e-06 6e-06 1e-05 3e-06 7e-06 0 
3e-06 7e-06 1e-06 3e-06 7e-06 2e-06 3e-06 7e-06 3e-06 
3e-06 7e-06 4e-06 3e-06 7e-06 5e-06 3e-06 7e-06 6e-06 
3e-06 7e-06 7e-06 3e-06 7e-06 8e-06 3e-06 7e-06 9e-06 
3e-06 7e-06 1e-05 3e-06 8e-06 0 3e-06 8e-06 1e-06 
3e-06 8e-06 2e-06 3e-06 8e-06 3e-06 3e-06 8e-06 4e-06 
3e-06 8e-06 5e-06 3e-06 8e-06 6e-06 3e-06 8e-06 7e-06 
3e-06 8e-06 8e-06 3e-06 8e-06 9e-06 3e-06 8e-06 1e-05 
3e-06 9e-06 0 3e-06 9e-06 1e-06 3e-06 9e-06 2e-06 
3e-06 9e-06 3e-06 3e-06 9e-06 4e-06 3e-06 9e-06 5e-06 
3e-06 9e-06 6e-06 3e-06 9e-06 7e-06 3e-06 9e-06 8e-06 
3e-06 9e-06 9e-06 3e-06 9e-06 1e-05 3e-06 1e-05 0 
3e-06 1e-05 1e-06 3e-06 1e-05 2e-06 3e-06 1e-05 3e-06 
3e-06 1e-05 4e-06 3e-06 1e-05 5e-06 3e-06 1e-05 6e-06 
3e-06 1e-05 7e-06 3e-06 1e-05 8e-06 3e-06 1e-05 9e-06 
3e-06 1e-05 1e-05 4e-06 0 0 4e-06 0 1e-06 
4e-06 0 2e-06 4e-06 0 3e-06 4e-06 0 4e-06 
4e-06 0 5e-06 4e-06 0 6e-06 4e-06 0 7e-06 
4e-06 0 8e-06 4e-06 0 9e-06 4e-06 0 1e-05 
4e-06 1e-06 0 4e-06 1e-06 1e-06 4e-06 1e-06 2e-06 
4e-06 1e-06 3e-06 4e-06 1e-06 4e-06 4e-06 1e-06 5e-06 
4e-06 1e-06 6e-06 4e-06 1e-06 7e-06 4e-06 1e-06 8e-06 
4e-06 1e-06 9e-06 4e-06 1e-06 1e-05 4e-06 2e-06 0 
4e-06 2e-06 1e-06 4e-06 2e-06 2e-06 4e-06 2e-06 3e-06 
4e-06 2e-06 4e-06 4e-06 2e-06 5e-06 4e-06 2e-06 6e-06 
4e-06 2e-06 7e-06 4e-06 2e-06 8e-06 4e-06 2e-06 9e-06 
4e-06 2e-06 1e-05 4e-06 3e-06 0 4e-06 3e-06 1e-06 
4e-06 3e-06 2e-06 4e-06 3e-06 3e-06 4e-06 3e-06 4e-06 
4e-06 3e-06 5e-06 4e-06 3e-06 6e-06 4e-06 3e-06 7e-06 
4e-06 3e-06 8e-06 4e-06 3e-06 9e-06 4e-06 3e-06 1e-05 
4e-06 4e-06 0 4e-06 4e-06 1e-06 4e-06 4e-06 2e-06 
4e-06 4e-06 3e-06 4e-06 4e-06 4e-06 4e-06 4e-06 5e-06 
4e-06 4e-06 6e-06 4e-06 4e-06 7e-06 4e-06 4e-06 8e-06 
4e-06 4e-06 9e-06 4e-06 4e-06 1e-05 4e-06 5e-06 0 
4e-06 5e-06 1e-06 4e-06 5e-06 2e-06 4e-06 5e-06 3e-06 
4e-06 5e-06 4e-06 4e-06 5e-06 5e-06 4e-06 5e-06 6e-06 
4e-06 5e-06 7e-06 4e-06 5e-06 8e-06 4e-06 5e-06 9e-06 
4e-06 5e-06 1e-05 4e-06 6e-06 0 4e-06 6e-06 1e-06 
4e-06 6e-06 2e-06 4e-06 6e-06 3e-06 4e-06 6e-06 4e-06 
4e-06 6e-06 5e-06 4e-06 6e-06 6e-06 4e-06 6e-06 7e-06 
4e-06 6e-06 8e-06 4e-06 6e-06 9e-06 4e-06 6e-06 1e-05 
4e-06 7e-06 0 4e-06 7e-06 1e-06 4e-06 7e-06 2e-06 
4e-06 7e-06 3e-06 4e-06 7e-06 4e-06 4e-06 7e-06 5e-06 
4e-06 7e-06 6e-06 4e-06 7e-06 7e-06 4e-06 7e-06 8e-06 
4e-06 7e-06 9e-06 4e-06 7e-06 1e-05 4e-06 8e-06 0 
4e-06 8e-06 1e-06 4e-06 8e-06 2e-06 4e-06 8e-06 3e-06 
4e-06 8e-06 4e-06 4e-06 8e-06 5e-06 4e-06 8e-06 6e-06 
4e-06 8e-06 7e-06 4e-06 8e-06 8e-06 4e-06 8e-06 9e-06 
4e-06 8e-06 1e-05 4e-06 9e-06 0 4e-06 9e-06 1e-06 
4e-06 9e-06 2e-06 4e-06 9e-06 3e-06 4e-06 9e-06 4e-06 
[...]
CELL_DATA 771
SCALARS MaterialID double
LOOKUP_TABLE default
0 0 0 0 0 0 0 0 0 
0 0 0 0 0 0 0 0 0 
0 0 0 0 0 0 0 0 0 
0 0 0 0 0 0 0 0 0 
0 0 0 0 0 0 0 0 0 
0 0 0 0 0 0 0 0 0 
0 0 0 0 0 0 0 0 0 
0 0 0 0 0 0 0 0 0 
0 0 0 0 0 0 0 0 0 
0 0 0 0 0 0 0 0 0 
0 0 0 0 0 0 0 0 0 
0 0 0 0 0 0 0 0 0 
0 0 0 0 0 0 0 0 0 
0 0 0 0 0 0 0 0 0 
0 0 0 0 0 0 0 0 0 
0 0 0 0 0 0 0 0 0 
0 0 0 0 0 0 0 0 0 
0 0 0 0 0 0 0 0 0 
0 0 0 0 0 0 0 0 0 
0 0 0 0 0 0 0 0 0 
0 0 0 0 0 0 0 0 0 
0 0 0 0 0 0 0 0 0 
0 0 0 0 0 0 0 0 0 
0 0 0 0 0 0 0 0 0 
0 0 0 0 0 0 0 0 0 
0 0 0 0 0 0 0 0 0 
0 0 0 0 0 0 0 0 0 
0 0 0 0 0 0 0 0 0 
0 0 0 0 0 0 0 0 0 
0 0 0 0 0 0 0 0 0 
0 0 0 0 0 0 0 0 0 
0 0 0 0 0 0 0 0 0 
0 0 0 0 0 0 0 0 0 
0 0 0 0 0 0 0 0 0 
0 0 0 0 0 0 0 0 0 
0 0 0 0 0 0 0 0 0 
0 0 0 0 0 0 0 0 0 
0 0 0 0 0 0 0 0 0 
0 0 0 0 0 0 0 0 0 
0 0 0 0 0 0 0 0 0 
0 0 0 0 0 0 0 0 0 
0 0 0 0 0 0 0 0 0 
0 0 0 0 0 0 0 0 0 
0 0 0 0 0 0 0 0 0 
0 0 0 0 0 0 0 0 0 
0 0 0 0 0 0 0 0 0 
0 0 0 0 0 0 0 0 0 
0 0 0 0 0 0 0 0 0 
0 0 0 0 0 0 0 0 0 
0 0 0 0 0 0 0 0 0 
0 0 0 0 0 0 0 0 0 
0 0 0 0 0 0 0 0 0 
0 0 0 0 0 0 0 0 0 
0 0 0 0 0 0 0 0 0 
0 0 0 0 0 0 0 0 0 
0 0 0 0 0 0 0 0 0 
0 0 0 0 0 0 0 0 3 
3 3 3 3 3 3 3 3 3 
3 3 3 3 3 3 3 3 3 
3 3 3 3 3 3 3 3 3 
3 3 3 3 3 3 3 3 3 
3 3 3 3 3 3 3 3 3 
3 3 4 4 4 4 4 4 4 
4 4 4 4 4 4 4 4 4 
4 4 4 4 4 4 4 4 4 
4 4 4 4 4 4 4 4 4 
4 4 4 4 4 4 4 4 4 
1 1 1 1 1 2 2 2 2 
2 2 2 2 2 2 2 2 2 
2 2 2 2 2 2 2 2 2 
2 2 2 2 2 2 2 2 2 
2 2 2 2 2 2 2 2 2 
2 2 2 2 2 2 2 2 2 
2 2 2 2 2 2 2 2 2 
2 2 2 2 2 2 2 2 2 
2 2 2 2 2 2 2 2 2 
2 2 2 5 5 5 5 5 5 
5 5 5 5 5 5 5 5 5 
5 5 5 5 5 5 5 5 5 
5 5 5 5 5 5 5 5 5 
5 5 5 5 5 5 5 5 5 
5 5 5 5 6 6 6 6 6 
6 6 6 6 6 6 6 6 6 
6 6 6 6 6 6 6 6 6 
6 6 6 6 6 6 6 6 6 
6 6 6 6 6 6 
FIELD FieldData 1
KnudsenRadius 1 771 double
1.32875e-06 1e-06 1.6575e-06 2.15062e-06 1.32875e-06 2.31499e-06 1.6575e-06 2.15062e-06 2.15062e-06 
2.97249e-06 2.80811e-06 2.97249e-06 2.80811e-06 2.15062e-06 2.15062e-06 2.15062e-06 3.62998e-06 2.97249e-06 
3.46561e-06 3.46561e-06 3.46561e-06 2.80811e-06 2.15062e-06 2.15062e-06 2.15062e-06 4.12311e-06 4.12311e-06 
4.12311e-06 3.46561e-06 3.46561e-06 3.46561e-06 2.97249e-06 2.31499e-06 1.6575e-06 2.15062e-06 4.12311e-06 
4.12311e-06 4.12311e-06 3.62998e-06 3.46561e-06 3.46561e-06 2.80811e-06 2.15062e-06 4.12311e-06 4.12311e-06 
4.12311e-06 3.30124e-06 2.31499e-06 1.32875e-06 1.32875e-06 1e-06 1.6575e-06 1.32875e-06 2.31499e-06 
2.80811e-06 2.80811e-06 2.80811e-06 1e-06 2.15062e-06 2.15062e-06 3.62998e-06 3.46561e-06 3.46561e-06 
3.46561e-06 3.46561e-06 3.46561e-06 1.98624e-06 2.15062e-06 2.15062e-06 4.12311e-06 4.12311e-06 4.12311e-06 
3.62998e-06 3.62998e-06 3.46561e-06 3.46561e-06 2.80811e-06 2.15062e-06 2.15062e-06 4.12311e-06 4.12311e-06 
4.12311e-06 4.12311e-06 3.62998e-06 3.62998e-06 3.46561e-06 2.97249e-06 2.15062e-06 4.12311e-06 4.12311e-06 
4.12311e-06 4.12311e-06 3.62998e-06 3.62998e-06 3.62998e-06 2.80811e-06 4.12311e-06 4.12311e-06 4.12311e-06 
4.12311e-06 3.62998e-06 3.62998e-06 3.46561e-06 1.32875e-06 1.32875e-06 1.32875e-06 2.15062e-06 1e-06 
1.6575e-06 2.31499e-06 3.46561e-06 3.46561e-06 3.46561e-06 1.98624e-06 1.98624e-06 4.12311e-06 3.62998e-06 
3.62998e-06 3.62998e-06 3.62998e-06 3.46561e-06 3.46561e-06 1.98624e-06 1.98624e-06 2.15062e-06 4.12311e-06 
4.12311e-06 4.12311e-06 3.62998e-06 3.62998e-06 3.62998e-06 3.62998e-06 3.46561e-06 1.98624e-06 1.98624e-06 
4.12311e-06 4.12311e-06 4.12311e-06 4.12311e-06 3.62998e-06 3.62998e-06 3.62998e-06 3.46561e-06 2.31499e-06 
4.12311e-06 4.12311e-06 4.12311e-06 4.12311e-06 3.62998e-06 3.62998e-06 3.62998e-06 3.62998e-06 1e-06 
4.12311e-06 4.12311e-06 4.12311e-06 4.12311e-06 4.12311e-06 3.62998e-06 3.62998e-06 1e-06 1.32875e-06 
1.32875e-06 2.15062e-06 2.15062e-06 2.15062e-06 3.46561e-06 3.46561e-06 3.46561e-06 1.32875e-06 4.12311e-06 
4.12311e-06 3.62998e-06 3.62998e-06 3.62998e-06 3.62998e-06 3.46561e-06 2.97249e-06 1.98624e-06 1.32875e-06 
4.12311e-06 4.12311e-06 4.12311e-06 3.62998e-06 3.62998e-06 3.62998e-06 3.62998e-06 3.46561e-06 2.31499e-06 
4.12311e-06 4.12311e-06 4.12311e-06 4.12311e-06 3.62998e-06 3.62998e-06 3.62998e-06 3.62998e-06 2.31499e-06 
4.12311e-06 4.12311e-06 4.12311e-06 4.12311e-06 4.12311e-06 3.62998e-06 3.62998e-06 3.62998e-06 2.80811e-06 
1e-06 4.12311e-06 4.12311e-06 4.12311e-06 4.12311e-06 4.12311e-06 3.62998e-06 3.62998e-06 3.62998e-06 
2.97249e-06 1.32875e-06 1.32875e-06 1.32875e-06 2.15062e-06 1e-06 1.6575e-06 1.32875e-06 3.46561e-06 
3.46561e-06 3.46561e-06 4.12311e-06 3.62998e-06 3.62998e-06 3.62998e-06 3.62998e-06 3.62998e-06 3.62998e-06 
2.97249e-06 1.98624e-06 4.12311e-06 4.12311e-06 4.12311e-06 3.62998e-06 3.62998e-06 3.62998e-06 3.62998e-06 
3.62998e-06 2.31499e-06 4.12311e-06 4.12311e-06 4.12311e-06 4.12311e-06 3.62998e-06 3.62998e-06 3.62998e-06 
3.62998e-06 2.80811e-06 4.12311e-06 4.12311e-06 4.12311e-06 4.12311e-06 3.62998e-06 3.62998e-06 3.62998e-06 
3.62998e-06 2.97249e-06 2.80811e-06 4.12311e-06 4.12311e-06 4.12311e-06 4.12311e-06 4.12311e-06 3.62998e-06 
3.62998e-06 3.62998e-06 2.97249e-06 2.80811e-06 1.32875e-06 2.15062e-06 1.32875e-06 1.32875e-06 3.46561e-06 
3.46561e-06 3.46561e-06 1.6575e-06 3.62998e-06 3.62998e-06 3.62998e-06 3.62998e-06 3.62998e-06 3.46561e-06 
4.12311e-06 4.12311e-06 4.12311e-06 3.62998e-06 3.62998e-06 3.62998e-06 3.62998e-06 3.46561e-06 4.12311e-06 
4.12311e-06 4.12311e-06 4.12311e-06 3.62998e-06 3.62998e-06 3.62998e-06 3.62998e-06 2.97249e-06 4.12311e-06 
4.12311e-06 4.12311e-06 4.12311e-06 3.62998e-06 3.62998e-06 3.62998e-06 3.62998e-06 2.97249e-06 2.80811e-06 
4.12311e-06 4.12311e-06 4.12311e-06 4.12311e-06 3.62998e-06 3.62998e-06 3.62998e-06 3.62998e-06 3.13686e-06 
2.80811e-06 1.32875e-06 1.32875e-06 1.32875e-06 1e-06 2.15062e-06 2.31499e-06 2.15062e-06 1.6575e-06 
1e-06 3.46561e-06 3.62998e-06 3.62998e-06 3.46561e-06 3.46561e-06 3.62998e-06 3.62998e-06 3.62998e-06 
3.62998e-06 3.62998e-06 3.62998e-06 4.12311e-06 4.12311e-06 4.12311e-06 3.62998e-06 3.62998e-06 3.62998e-06 
3.62998e-06 3.13686e-06 2.80811e-06 4.12311e-06 4.12311e-06 4.12311e-06 3.62998e-06 3.62998e-06 3.62998e-06 
3.62998e-06 3.62998e-06 2.97249e-06 2.80811e-06 4.12311e-06 4.12311e-06 4.12311e-06 3.62998e-06 3.62998e-06 
3.62998e-06 3.62998e-06 3.13686e-06 2.97249e-06 2.80811e-06 1e-06 1.6575e-06 1e-06 1.6575e-06 
1.6575e-06 1.6575e-06 1.32875e-06 1.32875e-06 1.6575e-06 1.32875e-06 1e-06 1.32875e-06 1.6575e-06 
1.32875e-06 1.32875e-06 2.97249e-06 1.6575e-06 1.6575e-06 2.15062e-06 2.80811e-06 3.62998e-06 3.62998e-06 
3.46561e-06 1.32875e-06 1.6575e-06 2.31499e-06 3.62998e-06 3.62998e-06 3.62998e-06 3.62998e-06 3.13686e-06 
2.97249e-06 4.12311e-06 3.62998e-06 3.62998e-06 3.62998e-06 3.62998e-06 3.62998e-06 3.62998e-06 3.13686e-06 
2.97249e-06 2.97249e-06 4.12311e-06 3.62998e-06 3.62998e-06 3.62998e-06 3.62998e-06 3.13686e-06 3.13686e-06 
2.97249e-06 2.97249e-06 1e-06 1.6575e-06 1.6575e-06 1.6575e-06 1.6575e-06 1.32875e-06 1.6575e-06 
1.6575e-06 1.6575e-06 1e-06 1.6575e-06 1.6575e-06 1.6575e-06 1.6575e-06 1.32875e-06 1.6575e-06 
1.32875e-06 1e-06 1.32875e-06 1.32875e-06 1.6575e-06 1e-06 1e-06 2.15062e-06 2.31499e-06 
2.15062e-06 2.15062e-06 2.31499e-06 2.97249e-06 2.97249e-06 1.32875e-06 1.32875e-06 3.13686e-06 2.31499e-06 
2.31499e-06 2.97249e-06 2.97249e-06 2.97249e-06 1e-06 3.13686e-06 2.31499e-06 2.97249e-06 2.97249e-06 
2.97249e-06 1.6575e-06 1.6575e-06 1.6575e-06 1.6575e-06 1.6575e-06 1.6575e-06 1e-06 1.6575e-06 
1.6575e-06 1.6575e-06 1.6575e-06 1.6575e-06 1.6575e-06 1.6575e-06 1.32875e-06 1.6575e-06 1.6575e-06 
1.6575e-06 1e-06 1e-06 1.32875e-06 1.6575e-06 2.15062e-06 1e-06 1e-06 2.31499e-06 
2.31499e-06 1e-06 1e-06 2.97249e-06 2.97249e-06 2.97249e-06 1e-06 1e-06 2.97249e-06 
2.97249e-06 2.97249e-06 1e-06 1e-06 2.15062e-06 2.97249e-06 2.97249e-06 2.97249e-06 3 
3 3 3 3 3 3 3 3 3 
3 3 3 3 3 3 3 3 3 
3 3 3 3 3 3 3 3 3 
3 3 3 3 3 3 3 3 3 
3 3 3 3 3 3 3 3 3 
3 3 4 4 4 4 4 4 4 
4 4 4 4 4 4 4 4 4 
4 4 4 4 4 4 4 4 4 
4 4 4 4 4 4 4 4 4 
4 4 4 4 4 4 4 4 4 
1 1 1 1 1 2 2 2 2 
2 2 2 2 2 2 2 2 2 
2 2 2 2 2 2 2 2 2 
2 2 2 2 2 2 2 2 2 
2 2 2 2 2 2 2 2 2 
2 2 2 2 2 2 2 2 2 
2 2 2 2 2 2 2 2 2 
2 2 2 2 2 2 2 2 2 
2 2 2 2 2 2 2 2 2 
2 2 2 5 5 5 5 5 5 
5 5 5 5 5 5 5 5 5 
5 5 5 5 5 5 5 5 5 
5 5 5 5 5 5 5 5 5 
5 5 5 5 5 5 5 5 5 
5 5 5 5 6 6 6 6 6 
6 6 6 6 6 6 6 6 6 
6 6 6 6 6 6 6 6 6 
6 6 6 6 6 6 6 6 6 
6 6 6 6 6 6 
